
Host: hex6

Timers On : Mon Jul 24 18:50:46 2023
Timers Off: Mon Jul 24 18:52:44 2023

Wall Time:      118.98 seconds

                                                       Time (seconds)
Module                                       User      System        Wall        Calls

--------------------------------------------------------------------------------------

**************************************************************************************
